# vtk DataFile Version 5.1
vtk output
ASCII
DATASET POLYDATA
POINTS 13192 double
0.590864 0.003087 0.513337 0.669342 0.005894 0.433493 0.752264 -0.123968 0.675241 
0.515647 0.005749 0.628909 0.999079 -3e-06 0.234439 1.087878 -0.002809 0.201145 
1.065019 -0.156189 0.316442 0.904997 -0.035334 0.253969 0.973317 -0.193007 0.540212 
0.918701 -0.227278 0.674946 0.856535 -0.159888 0.61542 0.91795 -0.140296 0.489673 
0.973317 -0.193007 0.540212 1.099176 -0.250069 0.505671 1.047805 -0.31873 0.674083 
0.918701 -0.227278 0.674946 0.973317 -0.193007 0.540212 0.91795 -0.140296 0.489673 
1.014316 -0.16947 0.423407 1.099176 -0.250069 0.505671 1.486018 -0.552131 0.550708 
1.430951 -0.614181 0.664504 1.370312 -0.50872 0.601228 1.43433 -0.470314 0.496753 
1.280461 -0.37811 0.515203 1.43433 -0.470314 0.496753 1.370312 -0.50872 0.601228 
1.258099 -0.474216 0.664631 1.309153 -0.559608 0.716104 1.258099 -0.474216 0.664631 
1.370312 -0.50872 0.601228 1.430951 -0.614181 0.664504 1.33167 -0.186101 0.229605 
1.271182 -0.267584 0.321761 1.215653 -0.154411 0.254256 1.25947 -0.023706 0.140149 
1.33167 -0.186101 0.229605 1.43948 -0.21707 0.205866 1.406898 -0.347825 0.327959 
1.271182 -0.267584 0.321761 1.33167 -0.186101 0.229605 1.25947 -0.023706 0.140149 
1.433434 -0.035677 0.093359 1.43948 -0.21707 0.205866 1.175698 -0.350662 0.581164 
1.280461 -0.37811 0.515203 1.258099 -0.474216 0.664631 1.134193 -0.383947 0.673737 
1.087878 -0.002809 0.201145 1.25947 -0.023706 0.140149 1.215653 -0.154411 0.254256 
1.065019 -0.156189 0.316442 1.133205 -0.198814 0.33188 1.065019 -0.156189 0.316442 
1.215653 -0.154411 0.254256 1.271182 -0.267584 0.321761 1.344734 -0.352883 0.402947 
1.271182 -0.267584 0.321761 1.406898 -0.347825 0.327959 1.436834 -0.389118 0.366665 
1.175698 -0.350662 0.581164 1.134193 -0.383947 0.673737 1.047805 -0.31873 0.674083 
1.099176 -0.250069 0.505671 1.133205 -0.198814 0.33188 1.099176 -0.250069 0.505671 
1.014316 -0.16947 0.423407 1.065019 -0.156189 0.316442 0.904997 -0.035334 0.253969 
1.065019 -0.156189 0.316442 1.014316 -0.16947 0.423407 0.91795 -0.140296 0.489673 
1.344734 -0.352883 0.402947 1.436834 -0.389118 0.366665 1.43433 -0.470314 0.496753 
1.280461 -0.37811 0.515203 1.344734 -0.352883 0.402947 1.280461 -0.37811 0.515203 
1.230392 -0.316031 0.466662 1.271182 -0.267584 0.321761 1.133205 -0.198814 0.33188 
1.271182 -0.267584 0.321761 1.230392 -0.316031 0.466662 1.099176 -0.250069 0.505671 
1.175698 -0.350662 0.581164 1.099176 -0.250069 0.505671 1.230392 -0.316031 0.466662 
1.280461 -0.37811 0.515203 1.679175 -0.710655 0.570993 1.78723 -0.749803 0.537316 
1.786958 -0.836855 0.613917 1.618262 -0.777362 0.674667 1.675277 -0.89022 0.738658 
1.618262 -0.777362 0.674667 1.786958 -0.836855 0.613917 1.796021 -0.953267 0.705608 
1.992917 -0.90299 0.559085 1.944738 -0.959917 0.624969 1.878142 -0.866011 0.588161 
1.94489 -0.789555 0.490108 1.992917 -0.90299 0.559085 2.146159 -0.959192 0.541276 
2.096037 -1.018439 0.60293 1.944738 -0.959917 0.624969 1.992917 -0.90299 0.559085 
1.94489 -0.789555 0.490108 2.134532 -0.822622 0.445348 2.146159 -0.959192 0.541276 
1.78723 -0.749803 0.537316 1.94489 -0.789555 0.490108 1.878142 -0.866011 0.588161 
1.786958 -0.836855 0.613917 1.796021 -0.953267 0.705608 1.786958 -0.836855 0.613917 
1.878142 -0.866011 0.588161 1.944738 -0.959917 0.624969 2.212501 -1.04605 0.583401 
2.13333 -1.13263 0.664351 2.096037 -1.018439 0.60293 2.146159 -0.959192 0.541276 
1.958854 -1.090374 0.719133 1.944738 -0.959917 0.624969 2.096037 -1.018439 0.60293 
2.13333 -1.13263 0.664351 2.012918 -0.710896 0.399625 2.13459 -0.736029 0.3814 
2.134532 -0.822622 0.445348 1.94489 -0.789555 0.490108 1.862895 -1.051056 0.751091 
1.796021 -0.953267 0.705608 1.944738 -0.959917 0.624969 1.958854 -1.090374 0.719133 
1.961004 -0.195384 0.052494 1.960449 -0.082194 0.010683 2.134583 -0.087688 0.003289 
2.134984 -0.217483 0.042314 1.868775 -0.17662 0.06433 1.802481 -0.046566 0.027802 
1.960449 -0.082194 0.010683 1.961004 -0.195384 0.052494 1.676689 -0.358449 0.2302 
1.787539 -0.382586 0.211532 1.786238 -0.472326 0.277235 1.613002 -0.438692 0.315846 
1.672686 -0.537627 0.394369 1.613002 -0.438692 0.315846 1.786238 -0.472326 0.277235 
1.786261 -0.572125 0.36539 1.614272 -0.274315 0.179131 1.611606 -0.037571 0.060022 
1.752277 -0.141621 0.073593 1.798996 -0.251217 0.109785 2.185357 -0.529118 0.233388 
2.130068 -0.597371 0.284993 2.069674 -0.515559 0.242792 2.130372 -0.449852 0.186505 
1.961231 -0.413921 0.190292 2.130372 -0.449852 0.186505 2.069674 -0.515559 0.242792 
1.961315 -0.500278 0.253591 1.956259 -0.622594 0.343988 1.961315 -0.500278 0.253591 
2.069674 -0.515559 0.242792 2.130068 -0.597371 0.284993 1.787539 -0.382586 0.211532 
1.961231 -0.413921 0.190292 1.961315 -0.500278 0.253591 1.786238 -0.472326 0.277235 
1.786261 -0.572125 0.36539 1.786238 -0.472326 0.277235 1.961315 -0.500278 0.253591 
1.956259 -0.622594 0.343988 1.676689 -0.358449 0.2302 1.613002 -0.438692 0.315846 
1.560855 -0.331828 0.251981 1.614272 -0.274315 0.179131 1.676689 -0.358449 0.2302 
1.614272 -0.274315 0.179131 1.798996 -0.251217 0.109785 1.787539 -0.382586 0.211532 
1.961231 -0.413921 0.190292 1.960197 -0.285346 0.096965 2.135007 -0.304231 0.088993 
2.130372 -0.449852 0.186505 1.672686 -0.537627 0.394369 1.618944 -0.601491 0.503976 
1.557245 -0.50355 0.434888 1.613002 -0.438692 0.315846 1.672686 -0.537627 0.394369 
1.786261 -0.572125 0.36539 1.787266 -0.656623 0.450474 1.618944 -0.601491 0.503976 
1.786261 -0.572125 0.36539 1.956259 -0.622594 0.343988 1.897372 -0.683823 0.422315 
1.787266 -0.656623 0.450474 1.787539 -0.382586 0.211532 1.798996 -0.251217 0.109785 
1.960197 -0.285346 0.096965 1.961231 -0.413921 0.190292 1.486018 -0.552131 0.550708 
1.618944 -0.601491 0.503976 1.563578 -0.667928 0.613702 1.430951 -0.614181 0.664504 
1.486018 -0.552131 0.550708 1.43433 -0.470314 0.496753 1.557245 -0.50355 0.434888 
1.618944 -0.601491 0.503976 1.43948 -0.21707 0.205866 1.614272 -0.274315 0.179131 
1.560855 -0.331828 0.251981 1.406898 -0.347825 0.327959 1.43948 -0.21707 0.205866 
1.433434 -0.035677 0.093359 1.611606 -0.037571 0.060022 1.614272 -0.274315 0.179131 
1.436834 -0.389118 0.366665 1.613002 -0.438692 0.315846 1.557245 -0.50355 0.434888 
1.43433 -0.470314 0.496753 1.436834 -0.389118 0.366665 1.406898 -0.347825 0.327959 
1.560855 -0.331828 0.251981 1.613002 -0.438692 0.315846 2.012918 -0.710896 0.399625 
1.956259 -0.622594 0.343988 2.130068 -0.597371 0.284993 2.13459 -0.736029 0.3814 
1.679175 -0.710655 0.570993 1.618262 -0.777362 0.674667 1.563578 -0.667928 0.613702 
1.618944 -0.601491 0.503976 1.679175 -0.710655 0.570993 1.618944 -0.601491 0.503976 
1.787266 -0.656623 0.450474 1.78723 -0.749803 0.537316 2.012918 -0.710896 0.399625 
1.94489 -0.789555 0.490108 1.897372 -0.683823 0.422315 1.956259 -0.622594 0.343988 
1.78723 -0.749803 0.537316 1.787266 -0.656623 0.450474 1.897372 -0.683823 0.422315 
1.94489 -0.789555 0.490108 1.868775 -0.17662 0.06433 1.798996 -0.251217 0.109785 
1.752277 -0.141621 0.073593 1.802481 -0.046566 0.027802 1.673071 -0.006432 0.053574 
1.802481 -0.046566 0.027802 1.752277 -0.141621 0.073593 1.611606 -0.037571 0.060022 
1.961004 -0.195384 0.052494 2.134984 -0.217483 0.042314 2.135007 -0.304231 0.088993 
1.960197 -0.285346 0.096965 1.868775 -0.17662 0.06433 1.961004 -0.195384 0.052494 
1.960197 -0.285346 0.096965 1.798996 -0.251217 0.109785 1.49188 -0.725862 0.728121 
1.430951 -0.614181 0.664504 1.563578 -0.667928 0.613702 1.618262 -0.777362 0.674667 
0.669342 0.005894 0.433493 0.91795 -0.140296 0.489673 0.856535 -0.159888 0.61542 
0.752264 -0.123968 0.675241 0.809771 -0.188631 0.731181 0.752264 -0.123968 0.675241 
0.856535 -0.159888 0.61542 0.918701 -0.227278 0.674946 0.747081 -0.001313 0.329057 
0.904997 -0.035334 0.253969 0.91795 -0.140296 0.489673 0.669342 0.005894 0.433493 
2.30822 -1.066012 0.568701 2.482229 -1.08966 0.554346 2.482149 -1.176535 0.608454 
2.308076 -1.152996 0.626128 2.306616 -1.280103 0.709304 2.308076 -1.152996 0.626128 
2.482149 -1.176535 0.608454 2.473703 -1.32272 0.697886 2.308258 -0.957425 0.496211 
2.308503 -0.848459 0.424356 2.482466 -0.862375 0.41449 2.482339 -0.957235 0.472259 
2.656216 -1.096974 0.552315 2.829861 -1.096883 0.553579 2.829861 -1.183689 0.605278 
2.65619 -1.184081 0.603991 2.655931 -1.30667 0.6729 2.65619 -1.184081 0.603991 
2.829861 -1.183689 0.605278 2.829861 -1.304237 0.674141 2.656241 -0.955357 0.468385 
2.656249 -0.864424 0.414895 2.829861 -0.864313 0.415082 2.829861 -0.954869 0.468988 
2.482229 -1.08966 0.554346 2.656216 -1.096974 0.552315 2.65619 -1.184081 0.603991 
2.482149 -1.176535 0.608454 2.473703 -1.32272 0.697886 2.482149 -1.176535 0.608454 
2.65619 -1.184081 0.603991 2.655931 -1.30667 0.6729 2.482339 -0.957235 0.472259 
2.482466 -0.862375 0.41449 2.656249 -0.864424 0.414895 2.656241 -0.955357 0.468385 
2.30822 -1.066012 0.568701 2.308258 -0.957425 0.496211 2.482339 -0.957235 0.472259 
2.482229 -1.08966 0.554346 2.656216 -1.096974 0.552315 2.656241 -0.955357 0.468385 
2.829861 -0.954869 0.468988 2.829861 -1.096883 0.553579 2.308597 -0.761657 0.367043 
2.482521 -0.775339 0.361743 2.482466 -0.862375 0.41449 2.308503 -0.848459 0.424356 
2.65625 -0.777581 0.363253 2.829861 -0.777512 0.363377 2.829861 -0.864313 0.415082 
2.656249 -0.864424 0.414895 2.482521 -0.775339 0.361743 2.65625 -0.777581 0.363253 
2.656249 -0.864424 0.414895 2.482466 -0.862375 0.41449 2.482229 -1.08966 0.554346 
2.482339 -0.957235 0.472259 2.656241 -0.955357 0.468385 2.656216 -1.096974 0.552315 
2.308931 -0.225163 0.039622 2.308773 -0.088646 -0.000606 2.482639 -0.088448 0.001084 
2.482638 -0.226099 0.040498 2.65625 -0.226092 0.040516 2.65625 -0.088448 0.001084 
2.829861 -0.088448 0.001084 2.829861 -0.226092 0.040516 2.482638 -0.226099 0.040498 
2.482639 -0.088448 0.001084 2.65625 -0.088448 0.001084 2.65625 -0.226092 0.040516 
2.308856 -0.539287 0.226339 2.482617 -0.544799 0.224059 2.482593 -0.631955 0.275939 
2.30879 -0.626255 0.280979 2.308856 -0.539287 0.226339 2.308897 -0.43556 0.161546 
[...]
CELL_DATA 3298
FIELD FieldData 1
GroupIds 1 3298 float
0 0 0 0 0 0 0 0 0 
0 0 0 0 0 0 0 0 0 
0 0 0 0 0 0 0 0 0 
0 0 0 0 0 0 0 0 0 
0 0 0 0 0 0 0 0 0 
0 0 0 0 0 0 0 0 0 
0 0 0 0 0 0 0 0 0 
0 0 0 0 0 0 0 0 0 
0 0 0 0 0 0 0 0 0 
0 0 0 0 0 0 0 0 0 
0 0 0 0 0 0 0 0 0 
0 0 0 0 0 0 0 0 0 
0 0 0 0 0 0 0 0 0 
0 0 0 0 0 0 0 0 0 
0 0 0 0 0 0 0 0 0 
0 0 0 0 0 0 0 0 0 
0 0 0 0 0 0 0 0 0 
0 0 0 0 0 0 0 0 0 
0 0 0 0 0 0 0 0 0 
0 0 0 0 0 0 0 0 0 
0 0 0 0 0 0 0 0 0 
0 0 0 0 0 0 0 0 0 
0 0 0 0 0 0 0 0 0 
0 0 0 0 0 0 0 0 0 
0 0 0 0 0 0 0 0 0 
0 0 0 0 0 0 0 0 0 
0 0 0 0 0 0 0 0 0 
0 0 0 0 0 0 0 0 0 
0 0 0 0 0 0 0 0 0 
0 0 0 0 0 0 0 0 0 
0 0 0 0 0 0 0 0 0 
0 0 0 0 0 0 0 0 0 
0 0 0 0 0 0 0 0 0 
0 0 0 0 0 0 0 0 0 
0 0 0 0 0 0 0 0 0 
0 0 0 0 0 0 0 0 0 
0 0 0 0 0 0 0 0 0 
0 0 0 0 0 0 0 0 0 
0 0 0 0 0 0 0 0 0 
0 0 0 0 0 0 0 0 0 
0 0 0 0 0 0 0 0 0 
0 0 0 0 0 0 0 0 0 
0 0 0 0 0 0 0 0 0 
0 0 0 0 0 0 0 0 0 
0 0 0 0 0 0 0 0 0 
0 0 0 0 0 0 0 0 0 
0 0 0 0 0 0 0 0 0 
0 0 0 0 0 0 0 0 0 
0 0 0 0 0 0 0 0 0 
0 0 0 0 0 0 0 0 0 
0 0 0 0 0 0 0 0 0 
0 0 0 0 0 0 0 0 0 
0 0 0 0 0 0 0 0 0 
0 0 0 0 0 0 0 0 0 
0 0 0 0 0 0 0 0 0 
0 0 0 0 0 0 0 0 0 
0 0 0 0 0 0 0 0 0 
0 0 0 0 0 0 0 0 0 
0 0 0 0 0 0 0 0 0 
0 0 0 0 0 0 0 0 0 
0 0 0 0 0 0 0 0 0 
0 0 0 0 0 0 0 0 0 
0 0 0 0 0 0 0 0 0 
0 0 0 0 0 0 0 0 0 
0 0 0 0 0 0 0 0 0 
0 0 0 0 0 0 0 0 0 
0 0 0 0 0 0 0 0 0 
0 0 0 0 0 0 0 0 0 
0 0 0 0 0 0 0 0 0 
0 0 0 0 0 0 0 0 0 
0 0 0 0 0 0 0 0 0 
0 0 0 0 0 0 0 0 0 
0 0 0 0 0 0 0 0 0 
0 0 0 0 0 0 0 0 0 
0 0 0 0 0 0 0 0 0 
0 0 0 0 0 0 0 0 0 
0 0 0 0 0 0 0 0 0 
0 0 0 0 0 0 0 0 0 
0 0 0 0 0 0 0 0 0 
0 0 0 0 0 0 0 0 0 
0 0 0 0 0 0 0 0 0 
0 0 0 0 0 0 0 0 0 
0 0 0 0 0 0 0 0 0 
0 0 0 0 0 0 0 0 0 
0 0 0 0 0 0 0 0 0 
0 0 0 0 0 0 0 0 0 
0 0 0 0 0 0 0 0 0 
0 0 0 0 0 0 0 0 0 
0 0 0 0 0 0 0 0 0 
0 0 0 0 0 0 0 0 0 
0 0 0 0 0 0 0 0 0 
0 0 0 0 0 0 0 0 0 
0 0 0 0 0 0 0 0 0 
0 0 0 0 0 0 0 0 0 
0 0 0 0 0 0 0 0 0 
0 0 0 0 0 0 0 0 0 
0 0 0 0 0 0 0 0 0 
0 0 0 0 0 0 0 0 0 
0 0 0 0 0 0 0 0 0 
0 0 0 0 0 0 0 0 0 
0 0 0 0 0 0 0 0 0 
0 0 0 0 0 0 0 0 0 
0 0 0 0 0 0 0 0 0 
0 0 0 0 0 0 0 0 0 
0 0 0 0 0 0 0 0 0 
0 0 0 0 0 0 0 0 0 
0 0 0 0 0 0 0 0 0 
0 0 0 0 0 0 0 0 0 
0 0 0 0 0 0 0 0 0 
0 0 0 0 0 0 0 0 0 
0 0 0 0 0 0 0 0 0 
0 0 0 0 0 0 0 0 0 
0 0 0 0 0 0 0 0 0 
0 0 0 0 0 0 0 0 0 
0 0 0 0 0 0 0 0 0 
0 0 0 0 0 0 0 0 0 
0 0 0 0 0 0 0 0 0 
0 0 0 0 0 0 0 0 0 
0 0 0 0 0 0 0 0 0 
0 0 0 0 0 0 0 0 0 
0 0 0 0 0 0 0 0 0 
0 0 0 0 0 0 0 0 0 
0 0 0 0 0 0 0 0 0 
0 0 0 0 0 0 0 0 0 
0 0 0 0 0 0 0 0 0 
0 0 0 0 0 0 0 0 0 
0 0 0 0 0 0 0 0 0 
0 0 0 0 0 0 0 0 0 
0 0 0 0 0 0 0 0 0 
0 0 0 0 0 0 0 0 0 
0 0 0 0 0 0 0 0 0 
0 0 0 0 0 0 0 0 0 
0 0 0 0 0 0 0 0 0 
0 0 0 0 0 0 0 0 0 
0 0 0 0 0 0 0 0 0 
0 0 0 0 0 0 0 0 0 
0 0 0 0 0 0 0 0 0 
0 0 0 0 0 0 0 0 0 
0 0 0 0 0 0 0 0 0 
0 0 0 0 0 0 0 0 0 
0 0 0 0 0 0 0 0 0 
0 0 0 0 0 0 0 0 0 
0 0 0 0 0 0 0 0 0 
0 0 0 0 0 0 0 0 0 
0 0 0 0 0 0 0 0 0 
0 0 0 0 0 0 0 0 0 
0 0 0 0 0 0 0 0 0 
0 0 0 0 0 0 0 0 0 
0 0 0 0 0 0 0 0 0 
0 0 0 0 0 0 0 0 0 
0 0 0 0 0 0 0 0 0 
0 0 0 0 0 0 0 0 0 
0 0 0 0 0 0 0 0 0 
0 0 0 0 0 0 0 0 0 
0 0 0 0 0 0 0 0 0 
0 0 0 0 0 0 0 0 0 
0 0 0 0 0 0 0 0 0 
0 0 0 0 0 0 0 0 0 
0 0 0 0 0 0 0 0 0 
0 0 0 0 0 0 0 0 0 
0 0 0 0 0 0 0 0 0 
0 0 0 0 0 0 0 0 0 
0 0 0 0 0 0 0 0 0 
0 0 0 0 0 0 0 0 0 
0 0 0 0 0 0 0 0 0 
0 0 0 0 0 0 0 0 0 
0 0 0 0 0 0 0 0 0 
0 0 0 0 0 0 0 0 0 
0 0 0 0 0 0 0 0 0 
0 0 0 0 0 0 0 0 0 
0 0 0 0 0 0 0 0 0 
0 0 0 0 0 0 0 0 0 
0 0 0 0 0 0 0 0 0 
0 0 0 0 0 0 0 0 0 
0 0 0 0 0 0 0 0 0 
0 0 0 0 0 0 0 0 0 
0 0 0 0 0 0 0 0 0 
0 0 0 0 0 0 0 0 0 
0 0 0 0 0 0 0 0 0 
0 0 0 0 0 0 0 0 0 
0 0 0 0 0 0 0 0 0 
0 0 0 0 0 0 0 0 0 
0 0 0 0 0 0 0 0 0 
0 0 0 0 0 0 0 0 0 
0 0 0 0 0 0 0 0 0 
0 0 0 0 0 0 0 0 0 
0 0 0 0 0 0 0 0 0 
0 0 0 0 0 0 0 0 0 
0 0 0 0 0 0 0 0 0 
0 0 0 0 0 0 0 0 0 
0 0 0 0 0 0 0 0 0 
0 0 0 0 0 0 0 0 0 
0 0 0 0 0 0 0 0 0 
0 0 0 0 0 0 0 0 0 
0 0 0 0 0 0 0 0 0 
0 0 0 0 0 0 0 0 0 
0 0 0 0 0 0 0 0 0 
0 0 0 0 0 0 0 0 0 
0 0 0 0 0 0 0 0 0 
0 0 0 0 0 0 0 0 0 
0 0 0 0 0 0 0 0 0 
0 0 0 0 0 0 0 0 0 
0 0 0 0 0 0 0 0 0 
0 0 0 0 0 0 0 0 0 
0 0 0 0 0 0 0 0 0 
0 0 0 0 0 0 0 0 0 
0 0 0 0 0 0 0 0 0 
0 0 0 0 0 0 0 0 0 
0 0 0 0 0 0 0 0 0 
0 0 0 0 0 0 0 0 0 
0 0 0 0 0 0 0 0 0 
0 0 0 0 0 0 0 0 0 
0 0 0 0 0 0 0 0 0 
0 0 0 0 0 0 0 0 0 
0 0 0 0 0 0 0 0 0 
0 0 0 0 0 0 0 0 0 
0 0 0 0 0 0 0 0 0 
0 0 0 0 0 0 0 0 0 
0 0 0 0 0 0 0 0 0 
0 0 0 0 0 0 0 0 0 
0 0 0 0 0 0 0 0 0 
0 0 0 0 0 0 0 0 0 
0 0 0 0 0 0 0 0 0 
0 0 0 0 0 0 0 0 0 
0 0 0 0 0 0 0 0 0 
0 0 0 0 0 0 0 0 0 
0 0 0 0 0 0 0 0 0 
0 0 0 0 0 0 0 0 0 
0 0 0 0 0 0 0 0 0 
0 0 0 0 0 0 0 0 0 
0 0 0 0 0 0 0 0 0 
0 0 0 0 0 0 0 0 0 
0 0 0 0 0 0 0 0 0 
0 0 0 0 0 0 0 0 0 
0 0 0 0 0 0 0 0 0 
0 0 0 0 0 0 0 0 0 
0 0 0 0 0 0 0 0 0 
0 0 0 0 0 0 0 0 0 
0 0 0 0 0 0 0 0 0 
0 0 0 0 0 0 0 0 0 
0 0 0 0 0 0 0 0 0 
0 0 0 0 0 0 0 0 0 
0 0 0 0 0 0 0 0 0 
0 0 0 0 0 0 0 0 0 
0 0 0 0 0 0 0 0 0 
0 0 0 0 0 0 0 0 0 
0 0 0 0 0 0 0 0 0 
0 0 0 0 0 0 0 0 0 
0 0 0 0 0 0 0 0 0 
0 0 0 0 0 0 0 0 0 
0 0 0 0 0 0 0 0 0 
0 0 0 0 0 0 0 0 0 
0 0 0 0 0 0 0 0 0 
0 0 0 0 0 0 0 0 0 
0 0 0 0 0 0 0 0 0 
0 0 0 0 0 0 0 0 0 
0 0 0 0 0 0 0 0 0 
0 0 0 0 0 0 0 0 0 
0 0 0 0 0 0 0 0 0 
0 0 0 0 0 0 0 0 0 
0 0 0 0 0 0 0 0 0 
0 0 0 0 0 0 0 0 0 
0 0 0 0 0 0 0 0 0 
0 0 0 0 0 0 0 0 0 
0 0 0 0 0 0 0 0 0 
0 0 0 0 0 0 0 0 0 
0 0 0 0 0 0 0 0 0 
0 0 0 0 0 0 0 0 0 
0 0 0 0 0 0 0 0 0 
0 0 0 0 0 0 0 0 0 
0 0 0 0 0 0 0 0 0 
0 0 0 0 0 0 0 0 0 
0 0 0 0 0 0 0 0 0 
0 0 0 0 0 0 0 0 0 
0 0 0 0 0 0 0 0 0 
0 0 0 0 0 0 0 0 0 
0 0 0 0 0 0 0 0 0 
0 0 0 0 0 0 0 0 0 
0 0 0 0 0 0 0 0 0 
0 0 0 0 0 0 0 0 0 
0 0 0 0 0 0 0 0 0 
0 0 0 0 0 0 0 0 0 
0 0 0 0 0 0 0 0 0 
0 0 0 0 0 0 0 0 0 
0 0 0 0 0 0 0 0 0 
0 0 0 0 0 0 0 0 0 
0 0 0 0 0 0 0 0 0 
0 0 0 0 0 0 0 0 0 
0 0 0 0 0 0 0 0 0 
0 0 0 0 0 0 0 0 0 
0 0 0 0 0 0 0 0 0 
0 0 0 0 0 0 0 0 0 
0 0 0 0 0 0 0 0 0 
0 0 0 0 0 0 0 0 0 
0 0 0 0 0 0 0 0 0 
0 0 0 0 0 0 0 0 0 
0 0 0 0 0 0 0 0 0 
0 0 0 0 0 0 0 0 0 
0 0 0 0 0 0 0 0 0 
0 0 0 0 0 0 0 0 0 
0 0 0 0 0 0 0 0 0 
0 0 0 0 0 0 0 0 0 
0 0 0 0 0 0 0 0 0 
0 0 0 0 0 0 0 0 0 
0 0 0 0 0 0 0 0 0 
0 0 0 0 0 0 0 0 0 
0 0 0 0 0 0 0 0 0 
0 0 0 0 0 0 0 0 0 
0 0 0 0 0 0 0 0 0 
0 0 0 0 0 0 0 0 0 
0 0 0 0 0 0 0 0 0 
0 0 0 0 0 0 0 0 0 
0 0 0 0 0 0 0 0 0 
0 0 0 0 0 0 0 0 0 
0 0 0 0 0 0 0 0 0 
0 0 0 0 0 0 0 0 0 
0 0 0 0 0 0 0 0 0 
0 0 0 0 0 0 0 0 0 
0 0 0 0 0 0 0 0 0 
0 0 0 0 0 0 0 0 0 
0 0 0 0 0 0 0 0 0 
0 0 0 0 0 0 0 0 0 
0 0 0 0 0 0 0 0 0 
0 0 0 0 0 0 0 0 0 
0 0 0 0 0 0 0 0 0 
0 0 0 0 0 0 0 0 0 
0 0 0 0 0 0 0 0 0 
0 0 0 0 0 0 0 0 0 
0 0 0 0 0 0 0 0 0 
0 0 0 0 0 0 0 0 0 
0 0 0 0 0 0 0 0 0 
0 0 0 0 0 0 0 0 0 
0 0 0 0 0 0 0 0 0 
0 0 0 0 0 0 0 0 0 
0 0 0 0 0 0 0 0 0 
0 0 0 0 0 0 0 0 0 
0 0 0 0 0 0 0 0 0 
0 0 0 0 0 0 0 0 0 
0 0 0 0 0 0 0 0 0 
0 0 0 0 0 0 0 0 0 
0 0 0 0 0 0 0 0 0 
0 0 0 0 0 0 0 0 0 
0 0 0 0 0 0 0 0 0 
0 0 0 0 0 0 0 0 0 
0 0 0 0 0 0 0 0 0 
0 0 0 0 0 0 0 0 0 
0 0 0 0 0 0 0 0 0 
0 0 0 0 0 0 0 0 0 
0 0 0 0 0 0 0 0 0 
0 0 0 0 0 0 0 0 0 
0 0 0 0 0 0 0 0 0 
0 0 0 0 0 0 0 0 0 
0 0 0 0 0 0 0 0 0 
0 0 0 0 0 0 0 0 0 
0 0 0 0 0 0 0 0 0 
0 0 0 0 0 0 0 0 0 
0 0 0 0 0 0 0 0 0 
0 0 0 0 0 0 0 0 0 
0 0 0 0 0 0 0 0 0 
0 0 0 0 0 0 0 0 0 
0 0 0 0 0 0 0 0 0 
0 0 0 0 0 0 0 0 0 
0 0 0 0 0 0 0 0 0 
0 0 0 0 0 0 0 0 0 
0 0 0 0 0 0 0 0 0 
0 0 0 0 0 0 0 0 0 
0 0 0 0 
POINT_DATA 13192
NORMALS Normals float
-0.383595 -0.872589 -0.302396 -0.383595 -0.872589 -0.302396 -0.383595 -0.872589 -0.302396 
-0.383595 -0.872589 -0.302396 -0.153899 -0.509498 -0.846597 -0.153899 -0.509498 -0.846597 
-0.153899 -0.509498 -0.846597 -0.153899 -0.509498 -0.846597 -0.467917 -0.800729 -0.374014 
-0.467917 -0.800729 -0.374014 -0.467917 -0.800729 -0.374014 -0.467917 -0.800729 -0.374014 
-0.498306 -0.752909 -0.429905 -0.498306 -0.752909 -0.429905 -0.498306 -0.752909 -0.429905 
-0.498306 -0.752909 -0.429905 -0.467706 -0.82021 -0.329404 -0.467706 -0.82021 -0.329404 
-0.467706 -0.82021 -0.329404 -0.467706 -0.82021 -0.329404 -0.49507 -0.65456 -0.571365 
-0.49507 -0.65456 -0.571365 -0.49507 -0.65456 -0.571365 -0.49507 -0.65456 -0.571365 
-0.491893 -0.68899 -0.532292 -0.491893 -0.68899 -0.532292 -0.491893 -0.68899 -0.532292 
-0.491893 -0.68899 -0.532292 -0.520826 -0.642632 -0.561928 -0.520826 -0.642632 -0.561928 
-0.520826 -0.642632 -0.561928 -0.520826 -0.642632 -0.561928 -0.317409 -0.576116 -0.753221 
-0.317409 -0.576116 -0.753221 -0.317409 -0.576116 -0.753221 -0.317409 -0.576116 -0.753221 
-0.325518 -0.597234 -0.733041 -0.325518 -0.597234 -0.733041 -0.325518 -0.597234 -0.733041 
-0.325518 -0.597234 -0.733041 -0.280991 -0.532882 -0.798173 -0.280991 -0.532882 -0.798173 
-0.280991 -0.532882 -0.798173 -0.280991 -0.532882 -0.798173 -0.520291 -0.688388 -0.505391 
-0.520291 -0.688388 -0.505391 -0.520291 -0.688388 -0.505391 -0.520291 -0.688388 -0.505391 
-0.327212 -0.54602 -0.771229 -0.327212 -0.54602 -0.771229 -0.327212 -0.54602 -0.771229 
-0.327212 -0.54602 -0.771229 -0.323206 -0.631711 -0.704613 -0.323206 -0.631711 -0.704613 
-0.323206 -0.631711 -0.704613 -0.323206 -0.631711 -0.704613 -0.455401 -0.779502 -0.430101 
-0.455401 -0.779502 -0.430101 -0.455401 -0.779502 -0.430101 -0.455401 -0.779502 -0.430101 
-0.51711 -0.718714 -0.464809 -0.51711 -0.718714 -0.464809 -0.51711 -0.718714 -0.464809 
-0.51711 -0.718714 -0.464809 -0.456578 -0.82706 -0.327884 -0.456578 -0.82706 -0.327884 
-0.456578 -0.82706 -0.327884 -0.456578 -0.82706 -0.327884 -0.479888 -0.81168 -0.332992 
-0.479888 -0.81168 -0.332992 -0.479888 -0.81168 -0.332992 -0.479888 -0.81168 -0.332992 
-0.489268 -0.740851 -0.46017 -0.489268 -0.740851 -0.46017 -0.489268 -0.740851 -0.46017 
-0.489268 -0.740851 -0.46017 -0.481108 -0.770913 -0.417407 -0.481108 -0.770913 -0.417407 
-0.481108 -0.770913 -0.417407 -0.481108 -0.770913 -0.417407 -0.469215 -0.805427 -0.362112 
-0.469215 -0.805427 -0.362112 -0.469215 -0.805427 -0.362112 -0.469215 -0.805427 -0.362112 
-0.496095 -0.736593 -0.459696 -0.496095 -0.736593 -0.459696 -0.496095 -0.736593 -0.459696 
-0.496095 -0.736593 -0.459696 -0.441592 -0.60309 -0.664289 -0.441592 -0.60309 -0.664289 
-0.441592 -0.60309 -0.664289 -0.441592 -0.60309 -0.664289 -0.463414 -0.585318 -0.66532 
-0.463414 -0.585318 -0.66532 -0.463414 -0.585318 -0.66532 -0.463414 -0.585318 -0.66532 
-0.370201 -0.576401 -0.728501 -0.370201 -0.576401 -0.728501 -0.370201 -0.576401 -0.728501 
-0.370201 -0.576401 -0.728501 -0.313803 -0.569005 -0.760106 -0.313803 -0.569005 -0.760106 
-0.313803 -0.569005 -0.760106 -0.313803 -0.569005 -0.760106 -0.2893 -0.574199 -0.765899 
-0.2893 -0.574199 -0.765899 -0.2893 -0.574199 -0.765899 -0.2893 -0.574199 -0.765899 
-0.3736 -0.6013 -0.706301 -0.3736 -0.6013 -0.706301 -0.3736 -0.6013 -0.706301 
-0.3736 -0.6013 -0.706301 -0.4013 -0.5783 -0.710301 -0.4013 -0.5783 -0.710301 
-0.4013 -0.5783 -0.710301 -0.4013 -0.5783 -0.710301 -0.262802 -0.545405 -0.795907 
-0.262802 -0.545405 -0.795907 -0.262802 -0.545405 -0.795907 -0.262802 -0.545405 -0.795907 
-0.349588 -0.553981 -0.755574 -0.349588 -0.553981 -0.755574 -0.349588 -0.553981 -0.755574 
-0.349588 -0.553981 -0.755574 -0.264794 -0.597886 -0.756582 -0.264794 -0.597886 -0.756582 
-0.264794 -0.597886 -0.756582 -0.264794 -0.597886 -0.756582 -0.428407 -0.57731 -0.695112 
-0.428407 -0.57731 -0.695112 -0.428407 -0.57731 -0.695112 -0.428407 -0.57731 -0.695112 
-0.0726979 -0.315091 -0.946273 -0.0726979 -0.315091 -0.946273 -0.0726979 -0.315091 -0.946273 
-0.0726979 -0.315091 -0.946273 -0.1818 -0.346401 -0.920302 -0.1818 -0.346401 -0.920302 
-0.1818 -0.346401 -0.920302 -0.1818 -0.346401 -0.920302 -0.272699 -0.579497 -0.767996 
-0.272699 -0.579497 -0.767996 -0.272699 -0.579497 -0.767996 -0.272699 -0.579497 -0.767996 
-0.317292 -0.663583 -0.677483 -0.317292 -0.663583 -0.677483 -0.317292 -0.663583 -0.677483 
-0.317292 -0.663583 -0.677483 -0.254695 -0.425692 -0.868284 -0.254695 -0.425692 -0.868284 
-0.254695 -0.425692 -0.868284 -0.254695 -0.425692 -0.868284 -0.131501 -0.550206 -0.824609 
-0.131501 -0.550206 -0.824609 -0.131501 -0.550206 -0.824609 -0.131501 -0.550206 -0.824609 
-0.148305 -0.57412 -0.805228 -0.148305 -0.57412 -0.805228 -0.148305 -0.57412 -0.805228 
-0.148305 -0.57412 -0.805228 -0.17839 -0.569567 -0.802353 -0.17839 -0.569567 -0.802353 
-0.17839 -0.569567 -0.802353 -0.17839 -0.569567 -0.802353 -0.200108 -0.578123 -0.791031 
-0.200108 -0.578123 -0.791031 -0.200108 -0.578123 -0.791031 -0.200108 -0.578123 -0.791031 
-0.2368 -0.6055 -0.7598 -0.2368 -0.6055 -0.7598 -0.2368 -0.6055 -0.7598 
-0.2368 -0.6055 -0.7598 -0.279802 -0.612605 -0.739206 -0.279802 -0.612605 -0.739206 
-0.279802 -0.612605 -0.739206 -0.279802 -0.612605 -0.739206 -0.230603 -0.598508 -0.76721 
-0.230603 -0.598508 -0.76721 -0.230603 -0.598508 -0.76721 -0.230603 -0.598508 -0.76721 
-0.118096 -0.566183 -0.815776 -0.118096 -0.566183 -0.815776 -0.118096 -0.566183 -0.815776 
-0.118096 -0.566183 -0.815776 -0.411915 -0.695425 -0.588821 -0.411915 -0.695425 -0.588821 
-0.411915 -0.695425 -0.588821 -0.411915 -0.695425 -0.588821 -0.396611 -0.675218 -0.621917 
-0.396611 -0.675218 -0.621917 -0.396611 -0.675218 -0.621917 -0.396611 -0.675218 -0.621917 
-0.303996 -0.654991 -0.69179 -0.303996 -0.654991 -0.69179 -0.303996 -0.654991 -0.69179 
-0.303996 -0.654991 -0.69179 -0.194301 -0.583802 -0.788303 -0.194301 -0.583802 -0.788303 
-0.194301 -0.583802 -0.788303 -0.194301 -0.583802 -0.788303 -0.471387 -0.643682 -0.602883 
-0.471387 -0.643682 -0.602883 -0.471387 -0.643682 -0.602883 -0.471387 -0.643682 -0.602883 
-0.461299 -0.680599 -0.569199 -0.461299 -0.680599 -0.569199 -0.461299 -0.680599 -0.569199 
-0.461299 -0.680599 -0.569199 -0.304496 -0.614493 -0.727791 -0.304496 -0.614493 -0.727791 
-0.304496 -0.614493 -0.727791 -0.304496 -0.614493 -0.727791 -0.224485 -0.475768 -0.850442 
-0.224485 -0.475768 -0.850442 -0.224485 -0.475768 -0.850442 -0.224485 -0.475768 -0.850442 
-0.405993 -0.743787 -0.530991 -0.405993 -0.743787 -0.530991 -0.405993 -0.743787 -0.530991 
-0.405993 -0.743787 -0.530991 -0.328308 -0.653816 -0.681717 -0.328308 -0.653816 -0.681717 
-0.328308 -0.653816 -0.681717 -0.328308 -0.653816 -0.681717 -0.2054 -0.582299 -0.786599 
-0.2054 -0.582299 -0.786599 -0.2054 -0.582299 -0.786599 -0.2054 -0.582299 -0.786599 
-0.463116 -0.616322 -0.636923 -0.463116 -0.616322 -0.636923 -0.463116 -0.616322 -0.636923 
-0.463116 -0.616322 -0.636923 -0.420608 -0.625112 -0.657513 -0.420608 -0.625112 -0.657513 
-0.420608 -0.625112 -0.657513 -0.420608 -0.625112 -0.657513 -0.288488 -0.619375 -0.730171 
-0.288488 -0.619375 -0.730171 -0.288488 -0.619375 -0.730171 -0.288488 -0.619375 -0.730171 
-0.352287 -0.625377 -0.696274 -0.352287 -0.625377 -0.696274 -0.352287 -0.625377 -0.696274 
-0.352287 -0.625377 -0.696274 -0.1817 -0.363001 -0.913901 -0.1817 -0.363001 -0.913901 
-0.1817 -0.363001 -0.913901 -0.1817 -0.363001 -0.913901 -0.172596 -0.242494 -0.954677 
-0.172596 -0.242494 -0.954677 -0.172596 -0.242494 -0.954677 -0.172596 -0.242494 -0.954677 
-0.0995993 -0.455797 -0.884494 -0.0995993 -0.455797 -0.884494 -0.0995993 -0.455797 -0.884494 
-0.0995993 -0.455797 -0.884494 -0.173304 -0.41401 -0.893622 -0.173304 -0.41401 -0.893622 
-0.173304 -0.41401 -0.893622 -0.173304 -0.41401 -0.893622 -0.496482 -0.608378 -0.619178 
-0.496482 -0.608378 -0.619178 -0.496482 -0.608378 -0.619178 -0.496482 -0.608378 -0.619178 
-0.437596 -0.841592 -0.316597 -0.437596 -0.841592 -0.316597 -0.437596 -0.841592 -0.316597 
-0.437596 -0.841592 -0.316597 -0.485987 -0.781879 -0.390489 -0.485987 -0.781879 -0.390489 
-0.485987 -0.781879 -0.390489 -0.485987 -0.781879 -0.390489 -0.396103 -0.859706 -0.322502 
-0.396103 -0.859706 -0.322502 -0.396103 -0.859706 -0.322502 -0.396103 -0.859706 -0.322502 
-0.148998 -0.533791 -0.832386 -0.148998 -0.533791 -0.832386 -0.148998 -0.533791 -0.832386 
-0.148998 -0.533791 -0.832386 -0.172408 -0.521523 -0.835637 -0.172408 -0.521523 -0.835637 
-0.172408 -0.521523 -0.835637 -0.172408 -0.521523 -0.835637 -0.102602 -0.533712 -0.839419 
-0.102602 -0.533712 -0.839419 -0.102602 -0.533712 -0.839419 -0.102602 -0.533712 -0.839419 
0.00700007 -0.510905 -0.859609 0.00700007 -0.510905 -0.859609 0.00700007 -0.510905 -0.859609 
0.00700007 -0.510905 -0.859609 0.0102997 -0.492986 -0.869976 0.0102997 -0.492986 -0.869976 
0.0102997 -0.492986 -0.869976 0.0102997 -0.492986 -0.869976 0.00279996 -0.509293 -0.860588 
0.00279996 -0.509293 -0.860588 0.00279996 -0.509293 -0.860588 0.00279996 -0.509293 -0.860588 
-0.0381021 -0.519128 -0.853847 -0.0381021 -0.519128 -0.853847 -0.0381021 -0.519128 -0.853847 
-0.0381021 -0.519128 -0.853847 -0.0591009 -0.505308 -0.860913 -0.0591009 -0.505308 -0.860913 
-0.0591009 -0.505308 -0.860913 -0.0591009 -0.505308 -0.860913 -0.00880019 -0.513711 -0.857918 
-0.00880019 -0.513711 -0.857918 -0.00880019 -0.513711 -0.857918 -0.00880019 -0.513711 -0.857918 
-0.127994 -0.535375 -0.83486 -0.127994 -0.535375 -0.83486 -0.127994 -0.535375 -0.83486 
-0.127994 -0.535375 -0.83486 0.00549991 -0.510792 -0.859687 0.00549991 -0.510792 -0.859687 
0.00549991 -0.510792 -0.859687 0.00549991 -0.510792 -0.859687 -0.0789995 -0.533197 -0.842295 
-0.0789995 -0.533197 -0.842295 -0.0789995 -0.533197 -0.842295 -0.0789995 -0.533197 -0.842295 
0.00100004 -0.511419 -0.859331 0.00100004 -0.511419 -0.859331 0.00100004 -0.511419 -0.859331 
0.00100004 -0.511419 -0.859331 -0.00159996 -0.514686 -0.857377 -0.00159996 -0.514686 -0.857377 
-0.00159996 -0.514686 -0.857377 -0.00159996 -0.514686 -0.857377 -0.0225997 -0.517992 -0.855087 
-0.0225997 -0.517992 -0.855087 -0.0225997 -0.517992 -0.855087 -0.0225997 -0.517992 -0.855087 
0.00649999 -0.278899 -0.960298 0.00649999 -0.278899 -0.960298 0.00649999 -0.278899 -0.960298 
0.00649999 -0.278899 -0.960298 0 -0.275408 -0.961327 0 -0.275408 -0.961327 
0 -0.275408 -0.961327 0 -0.275408 -0.961327 0.000100006 -0.275315 -0.961354 
0.000100006 -0.275315 -0.961354 0.000100006 -0.275315 -0.961354 0.000100006 -0.275315 -0.961354 
-0.0348012 -0.521518 -0.85253 -0.0348012 -0.521518 -0.85253 -0.0348012 -0.521518 -0.85253 
-0.0348012 -0.521518 -0.85253 -0.0199002 -0.520206 -0.853809 -0.0199002 -0.520206 -0.853809 
-0.0199002 -0.520206 -0.853809 -0.0199002 -0.520206 -0.853809 0 -0.511684 -0.859174 
0 -0.511684 -0.859174 0 -0.511684 -0.859174 0 -0.511684 -0.859174 
0 -0.511684 -0.859174 0 -0.511684 -0.859174 0 -0.511684 -0.859174 
0 -0.511684 -0.859174 0.00370005 -0.511607 -0.859212 0.00370005 -0.511607 -0.859212 
0.00370005 -0.511607 -0.859212 0.00370005 -0.511607 -0.859212 0.00349993 -0.51149 -0.859282 
0.00349993 -0.51149 -0.859282 0.00349993 -0.51149 -0.859282 0.00349993 -0.51149 -0.859282 
-0.00640011 -0.517409 -0.855714 -0.00640011 -0.517409 -0.855714 -0.00640011 -0.517409 -0.855714 
-0.00640011 -0.517409 -0.855714 0 -0.513878 -0.857863 0 -0.513878 -0.857863 
0 -0.513878 -0.857863 0 -0.513878 -0.857863 0.00210004 -0.512611 -0.858618 
0.00210004 -0.512611 -0.858618 0.00210004 -0.512611 -0.858618 0.00210004 -0.512611 -0.858618 
0 -0.511684 -0.859174 0 -0.511684 -0.859174 0 -0.511684 -0.859174 
0 -0.511684 -0.859174 0 -0.49601 -0.868317 0 -0.49601 -0.868317 
0 -0.49601 -0.868317 0 -0.49601 -0.868317 0 -0.511493 -0.859288 
0 -0.511493 -0.859288 0 -0.511493 -0.859288 0 -0.511493 -0.859288 
0 -0.511684 -0.859174 0 -0.511684 -0.859174 0 -0.511684 -0.859174 
0 -0.511684 -0.859174 0 -0.49601 -0.868317 0 -0.49601 -0.868317 
0 -0.49601 -0.868317 0 -0.49601 -0.868317 0 -0.511493 -0.859288 
0 -0.511493 -0.859288 0 -0.511493 -0.859288 0 -0.511493 -0.859288 
0 -0.511684 -0.859174 0 -0.511684 -0.859174 0 -0.511684 -0.859174 
0 -0.511684 -0.859174 0 -0.49601 -0.868317 0 -0.49601 -0.868317 
0 -0.49601 -0.868317 0 -0.49601 -0.868317 0 -0.511493 -0.859288 
0 -0.511493 -0.859288 0 -0.511493 -0.859288 0 -0.511493 -0.859288 
0 -0.511728 -0.859147 0 -0.511728 -0.859147 0 -0.511728 -0.859147 
0 -0.511728 -0.859147 0 -0.511728 -0.859147 0 -0.511728 -0.859147 
0 -0.511728 -0.859147 0 -0.511728 -0.859147 0 -0.511802 -0.859103 
0 -0.511802 -0.859103 0 -0.511802 -0.859103 0 -0.511802 -0.859103 
0 -0.511802 -0.859103 0 -0.511802 -0.859103 0 -0.511802 -0.859103 
0 -0.511802 -0.859103 0 -0.511802 -0.859103 0 -0.511802 -0.859103 
0 -0.511802 -0.859103 0 -0.511802 -0.859103 0 -0.511728 -0.859147 
0 -0.511728 -0.859147 0 -0.511728 -0.859147 0 -0.511728 -0.859147 
0 -0.275408 -0.961327 0 -0.275408 -0.961327 0 -0.275408 -0.961327 
0 -0.275408 -0.961327 0.000900025 -0.276108 -0.961126 0.000900025 -0.276108 -0.961126 